Title: * C:\Users\IS\OneDrive\ADC\SPICE\BatchTest.asc
Date: Sat May 16 13:45:57 2020
Plotname: Transient Analysis
Flags: real forward
No. Variables: 6
No. Points:         1046
Offset:   0.0000000000000000e+000
Command: Linear Technology Corporation LTspice XVII
Variables:
	0	time	time
	1	V(p001)	voltage
	2	V(n001)	voltage
	3	I(C1)	device_current
	4	I(R1)	device_current
	5	I(V1)	device_current
Values:
0		0.000000000000000e+000
	0.000000000000000e+000
	0.000000000000000e+000
	0.000000000000000e+000
	0.000000000000000e+000
	0.000000000000000e+000
1		9.999999717180685e-010
	6.283185116912600e-008
	6.283185129478971e-008
	-6.283185363059101e-008
	-6.283185116912600e-008
	-6.283185527422575e-008
2		1.636619805472614e-009
	1.028318548952531e-007
	1.028318551518464e-007
	-1.028318483686471e-007
	-1.028318548952531e-007
	-1.028318337148448e-007
3		2.909859472981705e-009
	1.828318622456482e-007
	1.828318628659599e-007
	-1.828318427238656e-007
	-1.828318622456482e-007
	-1.828318261232198e-007
4		5.456338807999888e-009
	3.428318763352832e-007
	3.428318782941867e-007
	-3.428318834075883e-007
	-3.428318763352832e-007
	-3.428318962050980e-007
5		9.934453718333516e-009
	6.242001300895032e-007
	6.242001363788871e-007
	-6.242001364273944e-007
	-6.242001300895032e-007
	-6.242001404643816e-007
6		1.889068353900077e-008
	1.186936630037946e-006
	1.186936652548286e-006
	-1.186936601429778e-006
	-1.186936630037946e-006
	-1.186936600561239e-006
7		3.680314318033528e-008
	2.312409599694833e-006
	2.312409684887072e-006
	-2.312409607937294e-006
	-2.312409599694833e-006
	-2.312409606020083e-006
8		7.262806246300431e-008
	4.563355418048576e-006
	4.563355749564541e-006
	-4.563355414409334e-006
	-4.563355418048576e-006
	-4.563355417985804e-006
9		1.442779010283424e-007
	9.065246570915572e-006
	9.065247878918670e-006
	-9.065246583695191e-006
	-9.065246570915572e-006
	-9.065246572959040e-006
10		2.875775781590185e-007
	1.806902694128477e-005
	1.806903213762051e-005
	-1.806902693062603e-005
	-1.806902694128477e-005
	-1.806902693601842e-005
11		5.741769324203707e-007
	3.607657994054124e-005
	3.607660065497294e-005
	-3.607657993404140e-005
	-3.607657994054124e-005
	-3.607657993143221e-005
12		1.147375640943075e-006
	7.209165497294418e-005
	7.209173768926843e-005
	-7.209165498572260e-005
	-7.209165497294418e-005
	-7.209165498522907e-005
13		2.293773057988484e-006
	1.441216811718526e-004
	1.441220117545870e-004
	-1.441216812017706e-004
	-1.441216811718526e-004
	-1.441216812025914e-004
14		4.586567892079302e-006
	2.881812380944198e-004
	2.881825598590543e-004
	-2.881812380803943e-004
	-2.881812380944198e-004
	-2.881812380763904e-004
15		9.172157560260936e-006
	5.762983699452744e-004
	5.763036558586679e-004
	-5.762983699471567e-004
	-5.762983699452744e-004
	-5.762983699497681e-004
16		1.834333689662421e-005
	1.152524704923627e-003
	1.152545846183481e-003
	-1.152524704920521e-003
	-1.152524704923627e-003
	-1.152524704920666e-003
17		3.668569556935075e-005
	2.304945654017127e-003
	2.305030213438405e-003
	-2.304945654026300e-003
	-2.304945654017127e-003
	-2.304945654032053e-003
18		7.337041291480384e-005
	4.609660620995056e-003
	4.609998840793089e-003
	-4.609660620991393e-003
	-4.609660620995056e-003
	-4.609660620985778e-003
19		1.467398476057100e-004
	9.218582448096188e-003
	9.219935238270968e-003
	-9.218582448094478e-003
	-9.218582448096188e-003
	-9.218582448099255e-003
20		2.934787169875223e-004
	1.843439061923751e-002
	1.843980117541523e-002
	-1.843439061921968e-002
	-1.843439061923751e-002
	-1.843439061923391e-002
21		5.869564557511469e-004
	3.685784059224243e-002
	3.687947818740728e-002
	-3.685784059224798e-002
	-3.685784059224243e-002
	-3.685784059226194e-002
22		1.173911933278396e-003
	7.367187969496876e-002
	7.375839331488576e-002
	-7.367187969498007e-002
	-7.367187969496876e-002
	-7.367187969498446e-002
23		2.150474433278396e-003
	1.348240593146214e-001
	1.351141822499774e-001
	-1.348240593146289e-001
	-1.348240593146214e-001
	-1.348240593146386e-001
24		3.127036933278396e-003
	1.958518355984921e-001
	1.964648842124743e-001
	-1.958518355984994e-001
	-1.958518355984921e-001
	-1.958518355984893e-001
25		4.103599433278396e-003
	2.567531437190259e-001
	2.578081893831229e-001
	-2.567531437190573e-001
	-2.567531437190259e-001
	-2.567531437190382e-001
26		5.080161933278396e-003
	3.175259231558131e-001
	3.191417882211550e-001
	-3.175259231557950e-001
	-3.175259231558131e-001
	-3.175259231558130e-001
27		6.056724433278396e-003
	3.781681177740527e-001
	3.804633715512402e-001
	-3.781681177740293e-001
	-3.781681177740527e-001
	-3.781681177740097e-001
28		7.033286933278396e-003
	4.386776759028503e-001
	4.417706306504254e-001
	-4.386776759028916e-001
	-4.386776759028503e-001
	-4.386776759029090e-001
29		8.009849433278395e-003
	4.990525504133442e-001
	5.030612573350562e-001
	-4.990525504133165e-001
	-4.990525504133442e-001
	-4.990525504133530e-001
30		8.986411933278395e-003
	5.592906987966612e-001
	5.643329440476799e-001
	-5.592906987967421e-001
	-5.592906987966612e-001
	-5.592906987967581e-001
31		9.962974433278395e-003
	6.193900832416943e-001
	6.255833839439223e-001
	-6.193900832415906e-001
	-6.193900832416943e-001
	-6.193900832416830e-001
32		1.093953693327840e-002
	6.793486707127040e-001
	6.868102709793406e-001
	-6.793486707127689e-001
	-6.793486707127040e-001
	-6.793486707127840e-001
33		1.191609943327840e-002
	7.391644330267360e-001
	7.480112999962431e-001
	-7.391644330266658e-001
	-7.391644330267360e-001
	-7.391644330266445e-001
34		1.289266193327840e-002
	7.988353469308567e-001
	8.091841668104784e-001
	-7.988353469307743e-001
	-7.988353469308567e-001
	-7.988353469307867e-001
35		1.386922443327840e-002
	8.583593941791990e-001
	8.703265682981860e-001
	-8.583593941791836e-001
	-8.583593941791990e-001
	-8.583593941791605e-001
36		1.484578693327840e-002
	9.177345616098207e-001
	9.314362024825079e-001
	-9.177345616098940e-001
	-9.177345616098207e-001
	-9.177345616099046e-001
37		1.582234943327840e-002
	9.769588412213665e-001
	9.925107686202561e-001
	-9.769588412214283e-001
	-9.769588412213665e-001
	-9.769588412214034e-001
38		1.679891193327840e-002
	1.036030230249537e+000
	1.053547967288535e+000
	-1.036030230249583e+000
	-1.036030230249537e+000
	-1.036030230249480e+000
39		1.777547443327840e-002
	1.094946731243358e+000
	1.114545500471314e+000
	-1.094946731243368e+000
	-1.094946731243358e+000
	-1.094946731243454e+000
40		1.875203693327840e-002
	1.153706352141244e+000
	1.175501071645943e+000
	-1.153706352141278e+000
	-1.153706352141244e+000
	-1.153706352141171e+000
41		1.972859943327840e-002
	1.212307106346867e+000
	1.236412385869621e+000
	-1.212307106346913e+000
	-1.212307106346867e+000
	-1.212307106346998e+000
42		2.070516193327840e-002
	1.270747012804806e+000
	1.297277149865793e+000
	-1.270747012804911e+000
	-1.270747012804806e+000
	-1.270747012804804e+000
43		2.168172443327840e-002
	1.329024096075994e+000
	1.358093072110498e+000
	-1.329024096075873e+000
	-1.329024096075994e+000
	-1.329024096075955e+000
44		2.265828693327840e-002
	1.387136386412950e+000
	1.418857862918634e+000
	-1.387136386412859e+000
	-1.387136386412950e+000
	-1.387136386412749e+000
45		2.363484943327840e-002
	1.445081919834794e+000
	1.479569234530174e+000
	-1.445081919834969e+000
	-1.445081919834794e+000
	-1.445081919835047e+000
46		2.461141193327840e-002
	1.502858738202045e+000
	1.540224901196289e+000
	-1.502858738202228e+000
	-1.502858738202045e+000
	-1.502858738202122e+000
47		2.558797443327840e-002
	1.560464889291195e+000
	1.600822579265413e+000
	-1.560464889291254e+000
	-1.560464889291195e+000
	-1.560464889291325e+000
48		2.656453693327840e-002
	1.617898426869060e+000
	1.661359987269216e+000
	-1.617898426869147e+000
	-1.617898426869060e+000
	-1.617898426869033e+000
49		2.754109943327840e-002
	1.675157410766906e+000
	1.721834846008503e+000
	-1.675157410766744e+000
	-1.675157410766906e+000
	-1.675157410766815e+000
50		2.851766193327840e-002
	1.732239906954339e+000
	1.782244878639023e+000
	-1.732239906954305e+000
	-1.732239906954339e+000
	-1.732239906954419e+000
51		2.949422443327840e-002
	1.789143987612969e+000
	1.842587810757191e+000
	-1.789143987612917e+000
	-1.789143987612969e+000
	-1.789143987612988e+000
52		3.047078693327840e-002
	1.845867731209833e+000
	1.902861370485719e+000
	-1.845867731209985e+000
	-1.845867731209833e+000
	-1.845867731209864e+000
53		3.144734943327840e-002
	1.902409222570588e+000
	1.963063288559150e+000
	-1.902409222570604e+000
	-1.902409222570588e+000
	-1.902409222570668e+000
54		3.242391193327840e-002
	1.958766552952447e+000
	2.023191298409294e+000
	-1.958766552952639e+000
	-1.958766552952447e+000
	-1.958766552952511e+000
55		3.340047443327840e-002
	2.014937820116893e+000
	2.083243136250565e+000
	-2.014937820116913e+000
	-2.014937820116893e+000
	-2.014937820116757e+000
56		3.437703693327840e-002
	2.070921128402125e+000
	2.143216541165210e+000
	-2.070921128402361e+000
	-2.070921128402125e+000
	-2.070921128402461e+000
57		3.535359943327840e-002
	2.126714588795271e+000
	2.203109255188432e+000
	-2.126714588795196e+000
	-2.126714588795271e+000
	-2.126714588795039e+000
58		3.633016193327840e-002
	2.182316319004339e+000
	2.262919023393398e+000
	-2.182316319004627e+000
	-2.182316319004339e+000
	-2.182316319004713e+000
59		3.730672443327840e-002
	2.237724443529918e+000
	2.322643593976140e+000
	-2.237724443529885e+000
	-2.237724443529918e+000
	-2.237724443529714e+000
60		3.828328693327840e-002
	2.292937093736624e+000
	2.382280718340332e+000
	-2.292937093736697e+000
	-2.292937093736624e+000
	-2.292937093736782e+000
61		3.925984943327840e-002
	2.347952407924275e+000
	2.441828151181949e+000
	-2.347952407924538e+000
	-2.347952407924275e+000
	-2.347952407924367e+000
62		4.023641193327840e-002
	2.402768531398820e+000
	2.501283650573802e+000
	-2.402768531398948e+000
	-2.402768531398820e+000
	-2.402768531399488e+000
63		4.121297443327840e-002
	2.457383616542984e+000
	2.560644978049941e+000
	-2.457383616542927e+000
	-2.457383616542984e+000
	-2.457383616543211e+000
64		4.218953693327840e-002
	2.511795822886665e+000
	2.619909898689939e+000
	-2.511795822886512e+000
	-2.511795822886665e+000
	-2.511795822886597e+000
65		4.316609943327840e-002
	2.566003317177038e+000
	2.679076181203031e+000
	-2.566003317177277e+000
	-2.566003317177038e+000
	-2.566003317177092e+000
66		4.414266193327840e-002
	2.620004273448406e+000
	2.738141598012120e+000
	-2.620004273448487e+000
	-2.620004273448406e+000
	-2.620004273448558e+000
67		4.511922443327840e-002
	2.673796873091766e+000
	2.797103925337648e+000
	-2.673796873091945e+000
	-2.673796873091766e+000
	-2.673796873091760e+000
68		4.609578693327840e-002
	2.727379304924090e+000
	2.855960943281316e+000
	-2.727379304924313e+000
	-2.727379304924090e+000
	-2.727379304924398e+000
69		4.707234943327840e-002
	2.780749765257341e+000
	2.914710435909665e+000
	-2.780749765257241e+000
	-2.780749765257341e+000
	-2.780749765257042e+000
70		4.804891193327840e-002
	2.833906457967188e+000
	2.973350191337504e+000
	-2.833906457967174e+000
	-2.833906457967188e+000
	-2.833906457967260e+000
71		4.902547443327840e-002
	2.886847594561445e+000
	3.031878001811184e+000
	-2.886847594561203e+000
	-2.886847594561445e+000
	-2.886847594561004e+000
72		5.000203693327840e-002
	2.939571394248221e+000
	3.090291663791719e+000
	-2.939571394248475e+000
	-2.939571394248221e+000
	-2.939571394248560e+000
73		5.097859943327840e-002
	2.992076084003773e+000
	3.148588978037752e+000
	-2.992076084003884e+000
	-2.992076084003773e+000
	-2.992076084003656e+000
74		5.195516193327840e-002
	3.044359898640073e+000
	3.206767749688352e+000
	-3.044359898640266e+000
	-3.044359898640073e+000
	-3.044359898640323e+000
75		5.293172443327840e-002
	3.096421080872065e+000
	3.264825788345649e+000
	-3.096421080872233e+000
	-3.096421080872065e+000
	-3.096421080872005e+000
76		5.390828693327840e-002
	3.148257881384637e+000
	3.322760908157301e+000
	-3.148257881384723e+000
	-3.148257881384637e+000
	-3.148257881384780e+000
77		5.488484943327840e-002
	3.199868558899291e+000
	3.380570927898794e+000
	-3.199868558898970e+000
	-3.199868558899291e+000
	-3.199868558898743e+000
78		5.586141193327840e-002
	3.251251380240488e+000
	3.438253671055557e+000
	-3.251251380240717e+000
	-3.251251380240488e+000
	-3.251251380240774e+000
79		5.683797443327840e-002
	3.302404620401718e+000
	3.495806965904914e+000
	-3.302404620401603e+000
	-3.302404620401718e+000
	-3.302404620401376e+000
80		5.781453693327840e-002
	3.353326562611236e+000
	3.553228645597844e+000
	-3.353326562611471e+000
	-3.353326562611236e+000
	-3.353326562611983e+000
81		5.879109943327840e-002
	3.404015498397497e+000
	3.610516548240558e+000
	-3.404015498397484e+000
	-3.404015498397497e+000
	-3.404015498397712e+000
82		5.976766193327840e-002
	3.454469727654277e+000
	3.667668516975904e+000
	-3.454469727654157e+000
	-3.454469727654277e+000
	-3.454469727654669e+000
83		6.074422443327840e-002
	3.504687558705473e+000
	3.724682400064561e+000
	-3.504687558705683e+000
	-3.504687558705473e+000
	-3.504687558705427e+000
84		6.172078693327840e-002
	3.554667308369588e+000
	3.781556050966053e+000
	-3.554667308369488e+000
	-3.554667308369588e+000
	-3.554667308369517e+000
85		6.269734943327840e-002
	3.604407302023894e+000
	3.838287328419572e+000
	-3.604407302024157e+000
	-3.604407302023894e+000
	-3.604407302023901e+000
86		6.367391193327840e-002
	3.653905873668269e+000
	3.894874096524584e+000
	-3.653905873667981e+000
	-3.653905873668269e+000
	-3.653905873668009e+000
87		6.465047443327840e-002
	3.703161365988712e+000
	3.951314224821254e+000
	-3.703161365989018e+000
	-3.703161365988712e+000
	-3.703161365988763e+000
88		6.562703693327840e-002
	3.752172130420521e+000
	4.007605588370651e+000
	-3.752172130421059e+000
	-3.752172130420521e+000
	-3.752172130421059e+000
89		6.660359943327840e-002
	3.800936527211154e+000
	4.063746067834753e+000
	-3.800936527211661e+000
	-3.800936527211154e+000
	-3.800936527211889e+000
90		6.758016193327840e-002
	3.849452925482745e+000
	4.119733549556240e+000
	-3.849452925482638e+000
	-3.849452925482745e+000
	-3.849452925482183e+000
91		6.855672443327840e-002
	3.897719703294285e+000
	4.175565925638070e+000
	-3.897719703294797e+000
	-3.897719703294285e+000
	-3.897719703294570e+000
92		6.953328693327840e-002
	3.945735247703469e+000
	4.231241094022838e+000
	-3.945735247703397e+000
	-3.945735247703469e+000
	-3.945735247702942e+000
93		7.050984943327840e-002
	3.993497954828206e+000
	4.286756958571923e+000
	-3.993497954828172e+000
	-3.993497954828206e+000
	-3.993497954827944e+000
94		7.148641193327840e-002
	4.041006229907781e+000
	4.342111429144404e+000
	-4.041006229907907e+000
	-4.041006229907781e+000
	-4.041006229907907e+000
95		7.246297443327840e-002
	4.088258487363665e+000
	4.397302421675748e+000
	-4.088258487363646e+000
	-4.088258487363665e+000
	-4.088258487363419e+000
96		7.343953693327840e-002
	4.135253150859995e+000
	4.452327858256281e+000
	-4.135253150860137e+000
	-4.135253150859995e+000
	-4.135253150860081e+000
97		7.441609943327840e-002
	4.181988653363693e+000
	4.507185667209416e+000
	-4.181988653364272e+000
	-4.181988653363693e+000
	-4.181988653363987e+000
98		7.539266193327840e-002
	4.228463437204236e+000
	4.561873783169654e+000
	-4.228463437203629e+000
	-4.228463437204236e+000
	-4.228463437203573e+000
99		7.636922443327840e-002
	4.274675954133066e+000
	4.616390147160336e+000
	-4.274675954133556e+000
	-4.274675954133066e+000
	-4.274675954133272e+000
100		7.734578693327840e-002
	4.320624665382656e+000
	4.670732706671172e+000
	-4.320624665382695e+000
	-4.320624665382656e+000
	-4.320624665382638e+000
101		7.832234943327840e-002
	4.366308041725210e+000
	4.724899415735511e+000
	-4.366308041724835e+000
	-4.366308041725210e+000
	-4.366308041724551e+000
102		7.929891193327840e-002
	4.411724563531001e+000
	4.778888235007371e+000
	-4.411724563530754e+000
	-4.411724563531001e+000
	-4.411724563530697e+000
103		8.027547443327840e-002
	4.456872720826347e+000
	4.832697131838222e+000
	-4.456872720826425e+000
	-4.456872720826347e+000
	-4.456872720826141e+000
104		8.125203693327840e-002
	4.501751013351227e+000
	4.886324080353510e+000
	-4.501751013351225e+000
	-4.501751013351227e+000
	-4.501751013351168e+000
105		8.222859943327840e-002
	4.546357950616527e+000
	4.939767061528934e+000
	-4.546357950616141e+000
	-4.546357950616527e+000
	-4.546357950615857e+000
106		8.320516193327840e-002
	4.590692051960913e+000
	4.993024063266461e+000
	-4.590692051961071e+000
	-4.590692051960913e+000
	-4.590692051961014e+000
107		8.418172443327840e-002
	4.634751846607330e+000
	5.046093080470073e+000
	-4.634751846607571e+000
	-4.634751846607330e+000
	-4.634751846608197e+000
108		8.515828693327840e-002
	4.678535873719143e+000
	5.098972115121269e+000
	-4.678535873719795e+000
	-4.678535873719143e+000
	-4.678535873720648e+000
109		8.613484943327840e-002
	4.722042682455890e+000
	5.151659176354281e+000
	-4.722042682456333e+000
	-4.722042682455890e+000
	-4.722042682456959e+000
110		8.711141193327840e-002
	4.765270832028653e+000
	5.204152280531033e+000
	-4.765270832028477e+000
	-4.765270832028653e+000
	-4.765270832029273e+000
111		8.808797443327840e-002
	4.808218891755061e+000
	5.256449451315822e+000
	-4.808218891754564e+000
	-4.808218891755061e+000
	-4.808218891755132e+000
112		8.906453693327840e-002
	4.850885441113899e+000
	5.308548719749727e+000
	-4.850885441113974e+000
	-4.850885441113899e+000
	-4.850885441114770e+000
113		9.004109943327840e-002
	4.893269069799345e+000
	5.360448124324736e+000
	-4.893269069799658e+000
	-4.893269069799345e+000
	-4.893269069800226e+000
114		9.101766193327840e-002
	4.935368377774813e+000
	5.412145711057601e+000
	-4.935368377775490e+000
	-4.935368377774813e+000
	-4.935368377776285e+000
115		9.199422443327840e-002
	4.977181975326415e+000
	5.463639533563404e+000
	-4.977181975326289e+000
	-4.977181975326415e+000
	-4.977181975326857e+000
116		9.297078693327840e-002
	5.018708483116018e+000
	5.514927653128829e+000
	-5.018708483116029e+000
	-5.018708483116018e+000
	-5.018708483115915e+000
117		9.394734943327840e-002
	5.059946532233925e+000
	5.566008138785162e+000
	-5.059946532233312e+000
	-5.059946532233925e+000
	-5.059946532232971e+000
118		9.492391193327840e-002
	5.100894764251157e+000
	5.616879067380992e+000
	-5.100894764251393e+000
	-5.100894764251157e+000
	-5.100894764251279e+000
119		9.590047443327840e-002
	5.141551831271332e+000
	5.667538523654607e+000
	-5.141551831271841e+000
	-5.141551831271332e+000
	-5.141551831271499e+000
120		9.687703693327840e-002
	5.181916395982160e+000
	5.717984600306113e+000
	-5.181916395981830e+000
	-5.181916395982160e+000
	-5.181916395981716e+000
121		9.785359943327840e-002
	5.221987131706524e+000
	5.768215398069234e+000
	-5.221987131705987e+000
	-5.221987131706524e+000
	-5.221987131705646e+000
122		9.883016193327840e-002
	5.261762722453167e+000
	5.818229025782829e+000
	-5.261762722453682e+000
	-5.261762722453167e+000
	-5.261762722453568e+000
123		9.980672443327840e-002
	5.301241862966966e+000
	5.868023600462077e+000
	-5.301241862967231e+000
	-5.301241862966966e+000
	-5.301241862966890e+000
124		1.007832869332784e-001
	5.340423258778823e+000
	5.917597247369390e+000
	-5.340423258779197e+000
	-5.340423258778823e+000
	-5.340423258779083e+000
125		1.017598494332784e-001
	5.379305626255119e+000
	5.966948100084977e+000
	-5.379305626255132e+000
	-5.379305626255119e+000
	-5.379305626254791e+000
126		1.027364119332784e-001
	5.417887692646781e+000
	6.016074300577129e+000
	-5.417887692647241e+000
	-5.417887692646781e+000
	-5.417887692647128e+000
127		1.037129744332784e-001
	5.456168196137925e+000
	6.064973999272164e+000
	-5.456168196138037e+000
	-5.456168196137925e+000
	-5.456168196137696e+000
128		1.046895369332784e-001
	5.494145885894090e+000
	6.113645355124064e+000
	-5.494145885894000e+000
	-5.494145885894090e+000
	-5.494145885893886e+000
129		1.056660994332784e-001
	5.531819522110061e+000
	6.162086535683788e+000
	-5.531819522110254e+000
	-5.531819522110061e+000
	-5.531819522109799e+000
130		1.066426619332784e-001
	5.569187876057270e+000
	6.210295717168269e+000
	-5.569187876057413e+000
	-5.569187876057270e+000
	-5.569187876057185e+000
131		1.076192244332784e-001
	5.606249730130782e+000
	6.258271084529073e+000
	-5.606249730130458e+000
	-5.606249730130782e+000
	-5.606249730130003e+000
132		1.085957869332784e-001
	5.643003877895856e+000
	6.306010831520736e+000
	-5.643003877896490e+000
	-5.643003877895856e+000
	-5.643003877896263e+000
133		1.095723494332784e-001
	5.679449124134085e+000
	6.353513160768760e+000
	-5.679449124133953e+000
	-5.679449124134085e+000
	-5.679449124133498e+000
134		1.105489119332784e-001
	5.715584284889130e+000
	6.400776283837303e+000
	-5.715584284889019e+000
	-5.715584284889130e+000
	-5.715584284888791e+000
135		1.115254744332784e-001
	5.751408187511991e+000
	6.447798421296493e+000
	-5.751408187511970e+000
	-5.751408187511991e+000
	-5.751408187511515e+000
136		1.125020369332784e-001
	5.786919670705888e+000
	6.494577802789429e+000
	-5.786919670705402e+000
	-5.786919670705888e+000
	-5.786919670705174e+000
137		1.134785994332784e-001
	5.822117584570697e+000
	6.541112667098843e+000
	-5.822117584570606e+000
	-5.822117584570697e+000
	-5.822117584570151e+000
138		1.144551619332784e-001
	5.857000790646949e+000
	6.587401262213392e+000
	-5.857000790646680e+000
	-5.857000790646949e+000
	-5.857000790646453e+000
139		1.154317244332784e-001
	5.891568161959412e+000
	6.633441845393634e+000
	-5.891568161959640e+000
	-5.891568161959412e+000
	-5.891568161959185e+000
140		1.164082869332784e-001
	5.925818583060227e+000
	6.679232683237632e+000
	-5.925818583059709e+000
	-5.925818583060227e+000
	-5.925818583059481e+000
141		1.173848494332784e-001
	5.959750950071621e+000
	6.724772051746223e+000
	-5.959750950071339e+000
	-5.959750950071621e+000
	-5.959750950070884e+000
142		1.183614119332784e-001
	5.993364170728166e+000
	6.770058236387923e+000
	-5.993364170728682e+000
	-5.993364170728166e+000
	-5.993364170728455e+000
143		1.193379744332784e-001
	6.026657164418614e+000
	6.815089532163476e+000
	-6.026657164419248e+000
	-6.026657164418614e+000
	-6.026657164418793e+000
144		1.203145369332784e-001
	6.059628862227289e+000
	6.859864243670048e+000
	-6.059628862227555e+000
	-6.059628862227289e+000
	-6.059628862227328e+000
145		1.212910994332784e-001
	6.092278206975029e+000
	6.904380685165055e+000
	-6.092278206975152e+000
	-6.092278206975029e+000
	-6.092278206974697e+000
146		1.222676619332784e-001
	6.124604153259694e+000
	6.948637180629637e+000
	-6.124604153259725e+000
	-6.124604153259694e+000
	-6.124604153259497e+000
147		1.232442244332784e-001
	6.156605667496232e+000
	6.992632063831755e+000
	-6.156605667496024e+000
	-6.156605667496232e+000
	-6.156605667495569e+000
148		1.242207869332784e-001
	6.188281727956277e+000
	7.036363678388922e+000
	-6.188281727956792e+000
	-6.188281727956277e+000
	-6.188281727957474e+000
149		1.251973494332784e-001
	6.219631324807331e+000
	7.079830377830566e+000
	-6.219631324808233e+000
	-6.219631324807331e+000
	-6.219631324808688e+000
150		1.261739119332784e-001
	6.250653460151473e+000
	7.123030525660020e+000
	-6.250653460151852e+000
	-6.250653460151473e+000
	-6.250653460152535e+000
151		1.271504744332784e-001
	6.281347148063630e+000
	7.165962495416137e+000
	-6.281347148063674e+000
	-6.281347148063630e+000
	-6.281347148064015e+000
152		1.281270369332784e-001
	6.311711414629383e+000
	7.208624670734519e+000
	-6.311711414629258e+000
	-6.311711414629383e+000
	-6.311711414629826e+000
153		1.291035994332784e-001
	6.341745297982334e+000
	7.251015445408379e+000
	-6.341745297982584e+000
	-6.341745297982334e+000
	-6.341745297982925e+000
154		1.300801619332784e-001
	6.371447848341011e+000
	7.293133223449011e+000
	-6.371447848341063e+000
	-6.371447848341011e+000
	-6.371447848341632e+000
155		1.310567244332784e-001
	6.400818128045311e+000
	7.334976419145876e+000
	-6.400818128045671e+000
	-6.400818128045311e+000
	-6.400818128046012e+000
156		1.320332869332784e-001
	6.429855211592500e+000
	7.376543457126305e+000
	-6.429855211592781e+000
	-6.429855211592500e+000
	-6.429855211593349e+000
157		1.330098494332784e-001
	6.458558185672739e+000
	7.417832772414811e+000
	-6.458558185673269e+000
	-6.458558185672739e+000
	-6.458558185673610e+000
158		1.339864119332784e-001
	6.486926149204162e+000
	7.458842810492012e+000
	-6.486926149204351e+000
	-6.486926149204162e+000
	-6.486926149204919e+000
159		1.349629744332784e-001
	6.514958213367482e+000
	7.499572027353155e+000
	-6.514958213367777e+000
	-6.514958213367482e+000
	-6.514958213368118e+000
160		1.359395369332784e-001
	6.542653501640133e+000
	7.540018889566243e+000
	-6.542653501640757e+000
	-6.542653501640133e+000
	-6.542653501641325e+000
161		1.369160994332784e-001
	6.570011149829963e+000
	7.580181874329774e+000
	-6.570011149829725e+000
	-6.570011149829963e+000
	-6.570011149829952e+000
162		1.378926619332784e-001
	6.597030306108447e+000
	7.620059469530071e+000
	-6.597030306107854e+000
	-6.597030306108447e+000
	-6.597030306108536e+000
163		1.388692244332784e-001
	6.623710131043438e+000
	7.659650173798217e+000
	-6.623710131043254e+000
	-6.623710131043438e+000
	-6.623710131043481e+000
164		1.398457869332784e-001
	6.650049797631447e+000
	7.698952496566571e+000
	-6.650049797631482e+000
	-6.650049797631447e+000
	-6.650049797632164e+000
165		1.408223494332784e-001
	6.676048491329459e+000
	7.737964958124896e+000
	-6.676048491329993e+000
	-6.676048491329459e+000
	-6.676048491330221e+000
166		1.417989119332784e-001
	6.701705410086274e+000
	7.776686089676062e+000
	-6.701705410086333e+000
	-6.701705410086274e+000
	-6.701705410087016e+000
167		1.427754744332784e-001
	6.727019764373381e+000
	7.815114433391352e+000
	-6.727019764373608e+000
	-6.727019764373381e+000
	-6.727019764373836e+000
168		1.437520369332784e-001
	6.751990777215355e+000
	7.853248542465345e+000
	-6.751990777215042e+000
	-6.751990777215355e+000
	-6.751990777215724e+000
169		1.447285994332784e-001
	6.776617684219780e+000
	7.891086981170389e+000
	-6.776617684219445e+000
	-6.776617684219780e+000
	-6.776617684219673e+000
170		1.457051619332784e-001
	6.800899733606700e+000
	7.928628324910653e+000
	-6.800899733605775e+000
	-6.800899733606700e+000
	-6.800899733606457e+000
171		1.466817244332784e-001
	6.824836186237588e+000
	7.965871160275762e+000
	-6.824836186237690e+000
	-6.824836186237588e+000
	-6.824836186237917e+000
172		1.476582869332784e-001
	6.848426315643848e+000
	8.002814085094014e+000
	-6.848426315643565e+000
	-6.848426315643848e+000
	-6.848426315644247e+000
173		1.486348494332784e-001
	6.871669408054832e+000
	8.039455708485173e+000
	-6.871669408055595e+000
	-6.871669408054832e+000
	-6.871669408055823e+000
174		1.496114119332784e-001
	6.894564762425376e+000
	8.075794650912826e+000
	-6.894564762425262e+000
	-6.894564762425376e+000
	-6.894564762425944e+000
175		1.505879744332784e-001
	6.917111690462856e+000
	8.111829544236329e+000
	-6.917111690463344e+000
	-6.917111690462856e+000
	-6.917111690463571e+000
176		1.515645369332784e-001
	6.939309516653769e+000
	8.147559031762317e+000
	-6.939309516653566e+000
	-6.939309516653769e+000
	-6.939309516654248e+000
177		1.525410994332784e-001
	6.961157578289825e+000
	8.182981768295777e+000
	-6.961157578289885e+000
	-6.961157578289825e+000
	-6.961157578291022e+000
178		1.535176619332784e-001
	6.982655225493557e+000
	8.218096420190703e+000
	-6.982655225493772e+000
	-6.982655225493557e+000
	-6.982655225494455e+000
179		1.544942244332784e-001
	7.003801821243443e+000
	8.252901665400293e+000
	-7.003801821243314e+000
	-7.003801821243443e+000
	-7.003801821243542e+000
180		1.554707869332784e-001
	7.024596741398565e+000
	8.287396193526742e+000
	-7.024596741398000e+000
	-7.024596741398565e+000
	-7.024596741397545e+000
181		1.564473494332784e-001
	7.045039374722732e+000
	8.321578705870557e+000
	-7.045039374722364e+000
	-7.045039374722732e+000
	-7.045039374721455e+000
182		1.574239119332784e-001
	7.065129122908182e+000
	8.355447915479473e+000
	-7.065129122908274e+000
	-7.065129122908182e+000
	-7.065129122907820e+000
183		1.584004744332784e-001
	7.084865400598735e+000
	8.389002547196888e+000
	-7.084865400599483e+000
	-7.084865400598735e+000
	-7.084865400598574e+000
184		1.593770369332784e-001
	7.104247635412504e+000
	8.422241337709886e+000
	-7.104247635412776e+000
	-7.104247635412504e+000
	-7.104247635412321e+000
185		1.603535994332784e-001
	7.123275267964080e+000
	8.455163035596790e+000
	-7.123275267964345e+000
	-7.123275267964080e+000
	-7.123275267964345e+000
186		1.613301619332784e-001
	7.141947751886248e+000
	8.487766401374280e+000
	-7.141947751887074e+000
	-7.141947751886248e+000
	-7.141947751886619e+000
187		1.623067244332784e-001
	7.160264553851209e+000
	8.520050207544063e+000
	-7.160264553851448e+000
	-7.160264553851209e+000
	-7.160264553851448e+000
188		1.632832869332784e-001
	7.178225153591308e+000
	8.552013238639086e+000
	-7.178225153591939e+000
	-7.178225153591308e+000
	-7.178225153591484e+000